 Gaussian 09, Revision A.01,
 Gaussian 09:  EM64L-G09RevA.01  8-May-2009

 ------------------------------------------------------------
 #HF/6-31G* SCF=tight Test Pop=MK iop(6/33=2) iop(6/42=6) opt
 ------------------------------------------------------------

 ---------------------
 remark line goes here
 ---------------------
 Symbolic Z-matrix:
 Charge =  0 Multiplicity = 1

 SCF Done:  E(RHF) =  -228.916420004     A.U. after   11 cycles
 SCF Done:  E(RHF) =  -228.922152720     A.U. after   10 cycles
 SCF Done:  E(RHF) =  -228.922390097     A.U. after   12 cycles
 SCF Done:  E(RHF) =  -228.922422474     A.U. after   12 cycles
 SCF Done:  E(RHF) =  -228.922423303     A.U. after   12 cycles
 Optimization completed.
    -- Stationary point found.

                         Standard orientation:
 ---------------------------------------------------------------------
 Center     Atomic      Atomic             Coordinates (Angstroms)
 Number     Number       Type             X           Y           Z
 ---------------------------------------------------------------------
      1          6           0        0.575610   -0.490908   -0.000009
      2          6           0       -0.575612    0.490911    0.000018
      3          8           0       -1.761555   -0.258523    0.000018
      4          8           0        1.761555    0.258521   -0.000011
      5          1           0        0.504721   -1.125490    0.879351
      6          1           0        0.504706   -1.125447   -0.879397
      7          1           0       -0.504718    1.125487   -0.879346
      8          1           0       -0.504701    1.125452    0.879407
      9          1           0       -2.507478    0.323710   -0.000170
     10          1           0        2.507481   -0.323708    0.000042
 ---------------------------------------------------------------------

 The electronic state is 1-A.
 Alpha  occ. eigenvalues --  -20.55886 -20.55885 -11.26858 -11.26793  -1.37247
 Alpha  occ. eigenvalues --   -1.35913  -0.99876  -0.83276  -0.72617  -0.67003
 Alpha  occ. eigenvalues --   -0.66920  -0.58258  -0.58010  -0.53357  -0.47588
 Alpha  occ. eigenvalues --   -0.44921  -0.43557
 Alpha virt. eigenvalues --    0.21562   0.23708   0.28737   0.30810   0.31731
 Alpha virt. eigenvalues --    0.37124   0.38453   0.43170   0.46083   0.72777
 Alpha virt. eigenvalues --    0.79421   0.81909   0.84250   0.91145   0.95279

 Mulliken atomic charges:
              1
     1  C   -0.002728
     2  C   -0.002729
     3  O   -0.747839
     4  O   -0.747841
     5  H    0.153404
     6  H    0.153402
     7  H    0.153403
     8  H    0.153404
     9  H    0.443762
    10  H    0.443762
 Sum of Mulliken atomic charges =   0.00000

 Dipole moment (field-independent basis, Debye):
    X=              0.0000    Y=              0.0000    Z=             -0.0003  Tot=              0.0003
 Quadrupole moment (field-independent basis, Debye-Ang):
   XX=            -19.6926   YY=            -24.9260   ZZ=            -25.1985
   XY=             -7.4097   XZ=              0.0013   YZ=             -0.0002

 Normal termination of Gaussian 09 at Wed Feb 19 11:14:04 2020.
